LIG
     8
   0.6930000   0.0280000   0.0120000  -0.7430000  -0.0300000   0.0340000
   1.1150000  -0.6990000  -0.7270000   1.1480000  -0.2210000   0.9850000
   1.0900000   1.0190000  -0.3240000  -1.0720000   0.7590000  -0.5850000
  -1.1660000   0.0960000   0.9730000  -1.0640000  -0.9530000  -0.3670000
