LIG
     9
  -0.9770000  -0.0680000  -0.0130000   0.5080000  -0.2700000   0.1510000
   1.0990000   0.9960000  -0.0110000  -1.2300000   0.9350000  -0.4350000
  -1.4740000  -0.1040000   0.9740000  -1.4360000  -0.8160000  -0.6810000
   0.7330000  -0.6290000   1.1880000   0.9340000  -1.0210000  -0.5250000
   1.8430000   0.9770000  -0.6490000
