%VERSION  VERSION_STAMP = V0001.000  DATE = 09/17/26  18:16:16                  
%FLAG TITLE                                                                     
%FORMAT(20a4)                                                                   
LIG                                                                             
%FLAG POINTERS                                                                  
%FORMAT(10I8)                                                                   
      21       8       8      13      15      17      29      25       0       0
      93       1      13      17      25      10      14      14       9       0
       0       0       0       0       0       0       0       0      21       0
       0
%FLAG ATOM_NAME                                                                 
%FORMAT(20a4)                                                                   
C1  C2  O1  O2  C3  C4  C5  C6  C7  C8  C9  O3  O4  H1  H2  H3  H4  H5  H6  H7  
H8  
%FLAG CHARGE                                                                    
%FORMAT(5E16.8)                                                                 
 -2.68050033E+00  1.21196517E+01 -9.43915140E+00 -6.94634076E+00  3.28183623E+00
 -2.67867810E+00 -1.49422860E+00 -2.80623420E+00 -1.03867110E+00 -2.68961148E+00
  1.21305851E+01 -1.02955995E+01 -1.10263137E+01  1.50698421E+00  1.50698421E+00
  1.50698421E+00  2.80623420E+00  2.56934430E+00  2.60578890E+00  2.89734570E+00
  8.16359040E+00
%FLAG ATOMIC_NUMBER                                                             
%FORMAT(10I8)                                                                   
       6       6       8       8       6       6       6       6       6       6
       6       8       8       1       1       1       1       1       1       1
       1
%FLAG MASS                                                                      
%FORMAT(5E16.8)                                                                 
  1.20100000E+01  1.20100000E+01  1.60000000E+01  1.60000000E+01  1.20100000E+01
  1.20100000E+01  1.20100000E+01  1.20100000E+01  1.20100000E+01  1.20100000E+01
  1.20100000E+01  1.60000000E+01  1.60000000E+01  1.00800000E+00  1.00800000E+00
  1.00800000E+00  1.00800000E+00  1.00800000E+00  1.00800000E+00  1.00800000E+00
  1.00800000E+00
%FLAG ATOM_TYPE_INDEX                                                           
%FORMAT(10I8)                                                                   
       1       2       3       4       2       2       2       2       2       2
       2       3       5       6       6       6       7       7       7       7
       8
%FLAG NUMBER_EXCLUDED_ATOMS                                                     
%FORMAT(10I8)                                                                   
       7       8       5      10      11       8       7       7       7       7
       4       2       1       2       1       1       1       1       1       1
       1
%FLAG NONBONDED_PARM_INDEX                                                      
%FORMAT(10I8)                                                                   
       1       2       4       7      11      16      22      29       2       3
       5       8      12      17      23      30       4       5       6       9
      13      18      24      31       7       8       9      10      14      19
      25      32      11      12      13      14      15      20      26      33
      16      17      18      19      20      21      27      34      22      23
      24      25      26      27      28      35      29      30      31      32
      33      34      35      36
%FLAG RESIDUE_LABEL                                                             
%FORMAT(20a4)                                                                   
LIG 
%FLAG RESIDUE_POINTER                                                           
%FORMAT(10I8)                                                                   
       1
%FLAG BOND_FORCE_CONSTANT                                                       
%FORMAT(5E16.8)                                                                 
  2.34850000E+02  3.45250000E+02  5.90600000E+02  3.51310000E+02  3.43340000E+02
  3.54250000E+02  3.60690000E+02  2.62840000E+02  3.59270000E+02  5.35510000E+02
%FLAG BOND_EQUIL_VALUE                                                          
%FORMAT(5E16.8)                                                                 
  1.52700000E+00  1.09620000E+00  1.21900000E+00  1.36210000E+00  1.36880000E+00
  1.39860000E+00  1.08600000E+00  1.49070000E+00  1.35560000E+00  9.72500000E-01
%FLAG ANGLE_FORCE_CONSTANT                                                      
%FORMAT(5E16.8)                                                                 
  7.64500000E+01  7.79700000E+01  4.36300000E+01  8.93600000E+01  1.01260000E+02
  7.90000000E+01  6.36700000E+01  4.49000000E+01  6.14400000E+01  7.79600000E+01
  7.83700000E+01  6.84600000E+01  1.02030000E+02  3.58000000E+01
%FLAG ANGLE_EQUIL_VALUE                                                         
%FORMAT(5E16.8)                                                                 
  2.14501057E+00  1.93382564E+00  1.90153704E+00  2.11691076E+00  2.15024656E+00
  2.07886256E+00  2.09474507E+00  2.09230160E+00  2.10015559E+00  2.13977458E+00
  1.98007689E+00  1.85947458E+00  2.13087340E+00  1.88024401E+00
%FLAG DIHEDRAL_FORCE_CONSTANT                                                   
%FORMAT(5E16.8)                                                                 
  2.70000000E+00  9.80000000E-01  4.03000000E+00  3.66000000E+00  1.73000000E+00
  2.15000000E+00  8.00000000E-02  0.00000000E+00  3.62500000E+00  5.80000000E-01
  1.00000000E+00  2.30000000E+00  1.90000000E+00  1.10000000E+00
%FLAG DIHEDRAL_PERIODICITY                                                      
%FORMAT(5E16.8)                                                                 
  2.00000000E+00  2.00000000E+00  1.00000000E+00  2.00000000E+00  1.00000000E+00
  2.00000000E+00  3.00000000E+00  2.00000000E+00  2.00000000E+00  2.00000000E+00
  2.00000000E+00  2.00000000E+00  1.00000000E+00  2.00000000E+00
%FLAG DIHEDRAL_PHASE                                                            
%FORMAT(5E16.8)                                                                 
  3.14159400E+00  3.14159400E+00  0.00000000E+00  3.14159400E+00  0.00000000E+00
  3.14159400E+00  0.00000000E+00  3.14159400E+00  3.14159400E+00  3.14159400E+00
  3.14159400E+00  3.14159400E+00  0.00000000E+00  3.14159400E+00
%FLAG SCEE_SCALE_FACTOR                                                         
%FORMAT(5E16.8)                                                                 
  1.20000000E+00  1.20000000E+00  1.20000000E+00  1.20000000E+00  1.20000000E+00
  1.20000000E+00  1.20000000E+00  1.20000000E+00  1.20000000E+00  1.20000000E+00
  1.20000000E+00  1.20000000E+00  1.20000000E+00  0.00000000E+00
%FLAG SCNB_SCALE_FACTOR                                                         
%FORMAT(5E16.8)                                                                 
  2.00000000E+00  2.00000000E+00  2.00000000E+00  2.00000000E+00  2.00000000E+00
  2.00000000E+00  2.00000000E+00  2.00000000E+00  2.00000000E+00  2.00000000E+00
  2.00000000E+00  2.00000000E+00  2.00000000E+00  0.00000000E+00
%FLAG SOLTY                                                                     
%FORMAT(5E16.8)                                                                 
  0.00000000E+00  0.00000000E+00  0.00000000E+00  0.00000000E+00  0.00000000E+00
  0.00000000E+00  0.00000000E+00  0.00000000E+00  0.00000000E+00
%FLAG LENNARD_JONES_ACOEF                                                       
%FORMAT(5E16.8)                                                                 
  1.02073671E+06  8.43969952E+05  6.96551276E+05  6.30925504E+05  5.17507491E+05
  3.76435470E+05  5.42502534E+05  4.46121722E+05  3.27367585E+05  2.83662575E+05
  7.18991463E+05  5.92438683E+05  4.37717034E+05  3.78207390E+05  5.03152404E+05
  1.00235148E+05  8.12662403E+04  5.68021765E+04  5.02224902E+04  6.80216136E+04
  7.94617769E+03  9.27554496E+04  7.52549148E+04  5.27277400E+04  4.65732396E+04
  6.30298721E+04  7.41026906E+03  6.90855956E+03  3.03553352E+02  2.25372434E+02
  1.15813907E+02  1.16469347E+02  1.74176419E+02  8.80612241E+00  8.53132435E+00
  1.10360882E-05
%FLAG LENNARD_JONES_BCOEF                                                       
%FORMAT(5E16.8)                                                                 
  6.63431737E+02  5.90251928E+02  5.24668528E+02  5.62969425E+02  4.98871431E+02
  4.69350655E+02  4.38146883E+02  3.88758656E+02  3.67361018E+02  2.87011518E+02
  5.36620538E+02  4.76608379E+02  4.51916854E+02  3.52573684E+02  4.32634597E+02
  1.37787728E+02  1.21392023E+02  1.11953944E+02  8.83545880E+01  1.09393126E+02
  2.57122925E+01  1.24325688E+02  1.09570372E+02  1.01173582E+02  7.98066064E+01
  9.87712192E+01  2.32899892E+01  2.10929191E+01  5.22789272E+00  4.40751799E+00
  3.48534600E+00  2.93355636E+00  3.81654050E+00  5.90150328E-01  5.44840215E-01
  4.55498033E-04
%FLAG BONDS_INC_HYDROGEN                                                        
%FORMAT(10I8)                                                                   
       0      39       2       0      42       2       0      45       2      15
      48       7      18      51       7      21      54       7      24      57
       7      36      60      10
%FLAG BONDS_WITHOUT_HYDROGEN                                                    
%FORMAT(10I8)                                                                   
       0       3       1       3       6       3       3       9       4       9
      12       5      12      15       6      12      27       6      15      18
       6      18      21       6      21      24       6      24      27       6
      27      30       8      30      33       3      30      36       9
%FLAG ANGLES_INC_HYDROGEN                                                       
%FORMAT(10I8)                                                                   
       3       0      39       3       3       0      42       3       3       0
      45       3      12      15      48       8      15      18      51       8
      18      15      48       8      18      21      54       8      21      18
      51       8      21      24      57       8      24      21      54       8
      27      24      57       8      30      36      60      12      39       0
      42      14      39       0      45      14      42       0      45      14
%FLAG ANGLES_WITHOUT_HYDROGEN                                                   
%FORMAT(10I8)                                                                   
       0       3       6       1       0       3       9       2       3       9
      12       4       6       3       9       5       9      12      15       6
       9      12      27       6      12      15      18       7      12      27
      24       7      12      27      30       9      15      12      27       7
      15      18      21       7      18      21      24       7      21      24
      27       7      24      27      30       9      27      30      33      10
      27      30      36      11      33      30      36      13
%FLAG DIHEDRALS_INC_HYDROGEN                                                    
%FORMAT(10I8)                                                                   
      39       0       3       6       3      39       0      -3       6       4
      42       0       3       6       3      42       0      -3       6       4
      45       0       3       6       3      45       0      -3       6       4
      39       0       3       9       8      42       0       3       9       8
      45       0       3       9       8       9      12      15      48       9
      12      15      18      51       9      12      27      24      57       9
      15      18      21      54       9      18      21      24      57       9
      21      18      15      48       9      24      21      18      51       9
      27      24      21      54       9      27      30      36      60      12
      27      12      15      48       9      30      27      24      57       9
      33      30      36      60      13      33      30     -36      60      12
      48      15      18      51       9      51      18      21      54       9
      54      21      24      57       9      12      18     -15     -48      14
      15      21     -18     -51      14      18      24     -21     -54      14
      21      27     -24     -57      14
%FLAG DIHEDRALS_WITHOUT_HYDROGEN                                                
%FORMAT(10I8)                                                                   
       0       3       9      12       1       3       9      12      15       2
       3       9      12      27       2       6       3       9      12       5
       6       3      -9      12       6       6       3      -9      12       7
       9      12      15      18       9       9      12      27      24       9
       9      12      27      30       9      12      15      18      21       9
      12      27     -24      21       9      12      27      30      33      10
      12      27      30      36      11      15      12      27      24       9
      15      12      27      30       9      15      18     -21      24       9
      18      15      12      27       9      18      21     -24      27       9
      21      24      27      30       9      24      27      30      33      10
      24      27      30      36      11       0       6      -3      -9      14
      15      27     -12      -9      14      30      12     -27     -24      14
      27      33     -30     -36      14
%FLAG EXCLUDED_ATOMS_LIST                                                       
%FORMAT(10I8)                                                                   
       2       3       4       5      14      15      16       3       4       5
       6      10      14      15      16       4       5      14      15      16
       5       6       7       9      10      11      14      15      16      17
       6       7       8       9      10      11      12      13      17      18
      20       7       8       9      10      11      17      18      19       8
       9      10      17      18      19      20       9      10      11      17
      18      19      20      10      11      12      13      18      19      20
      11      12      13      17      19      20      21      12      13      20
      21      13      21      21      15      16      16       0      18      19
      20       0       0
%FLAG HBOND_ACOEF                                                               
%FORMAT(5E16.8)                                                                 

%FLAG HBOND_BCOEF                                                               
%FORMAT(5E16.8)                                                                 

%FLAG HBCUT                                                                     
%FORMAT(5E16.8)                                                                 

%FLAG AMBER_ATOM_TYPE                                                           
%FORMAT(20a4)                                                                   
c3  c   o   os  ca  ca  ca  ca  ca  ca  c   o   oh  hc  hc  hc  ha  ha  ha  ha  
ho  
%FLAG TREE_CHAIN_CLASSIFICATION                                                 
%FORMAT(20a4)                                                                   
BLA BLA BLA BLA BLA BLA BLA BLA BLA BLA BLA BLA BLA BLA BLA BLA BLA BLA BLA BLA 
BLA 
%FLAG JOIN_ARRAY                                                                
%FORMAT(10I8)                                                                   
       0       0       0       0       0       0       0       0       0       0
       0       0       0       0       0       0       0       0       0       0
       0
%FLAG IROTAT                                                                    
%FORMAT(10I8)                                                                   
       0       0       0       0       0       0       0       0       0       0
       0       0       0       0       0       0       0       0       0       0
       0
%FLAG RADIUS_SET                                                                
%FORMAT(1a80)                                                                   
ArgH and AspGluO modified Bondi2 radii (mbondi3)                                
%FLAG RADII                                                                     
%FORMAT(5E16.8)                                                                 
  1.70000000E+00  1.70000000E+00  1.50000000E+00  1.50000000E+00  1.70000000E+00
  1.70000000E+00  1.70000000E+00  1.70000000E+00  1.70000000E+00  1.70000000E+00
  1.70000000E+00  1.50000000E+00  1.50000000E+00  1.20000000E+00  1.20000000E+00
  1.20000000E+00  1.20000000E+00  1.20000000E+00  1.20000000E+00  1.20000000E+00
  1.20000000E+00
%FLAG SCREEN                                                                    
%FORMAT(5E16.8)                                                                 
  7.20000000E-01  7.20000000E-01  8.50000000E-01  8.50000000E-01  7.20000000E-01
  7.20000000E-01  7.20000000E-01  7.20000000E-01  7.20000000E-01  7.20000000E-01
  7.20000000E-01  8.50000000E-01  8.50000000E-01  8.50000000E-01  8.50000000E-01
  8.50000000E-01  8.50000000E-01  8.50000000E-01  8.50000000E-01  8.50000000E-01
  8.50000000E-01
%FLAG IPOL                                                                      
%FORMAT(1I8)                                                                    
       0
