LIG
    21
   3.4400000   0.6750000  -0.2830000   2.1230000   0.3380000   0.2880000
   1.9210000   0.6180000   1.4970000   1.1850000  -0.2600000  -0.5170000
  -0.0700000  -0.6200000  -0.1010000  -0.2420000  -1.8900000   0.4210000
  -1.5120000  -2.2310000   0.8340000  -2.5880000  -1.3450000   0.7360000
  -2.3720000  -0.0780000   0.2050000  -1.1080000   0.2850000  -0.2150000
  -0.8440000   1.6010000  -0.7750000   0.2890000   1.9240000  -1.1500000
  -1.8670000   2.5340000  -0.9030000   3.3630000   1.2120000  -1.2460000
   4.1150000   1.1720000   0.4380000   3.9440000  -0.3040000  -0.5100000
   0.5730000  -2.5870000   0.5050000  -1.6700000  -3.2050000   1.2400000
  -3.5580000  -1.6660000   1.0740000  -3.2140000   0.6270000   0.1240000
  -1.9080000   3.2010000  -1.6630000
