%VERSION  VERSION_STAMP = V0001.000  DATE = 09/17/26  18:16:22                  
%FLAG TITLE                                                                     
%FORMAT(20a4)                                                                   
LIG                                                                             
%FLAG POINTERS                                                                  
%FORMAT(10I8)                                                                   
       9       6       4       5       8       5      15       5       0       0
      34       1       5       5       5       8      12       4       7       0
       0       0       0       0       0       0       0       0       9       0
       0
%FLAG ATOM_NAME                                                                 
%FORMAT(20a4)                                                                   
C1  N1  C2  C3  N2  H1  H2  H3  H4  
%FLAG CHARGE                                                                    
%FORMAT(5E16.8)                                                                 
  6.96618282E+00 -1.21562988E+01  5.30430906E+00 -4.76897838E+00 -5.86778307E+00
  1.09313553E+00  7.65134130E-01  3.20510010E+00  5.45919861E+00
%FLAG ATOMIC_NUMBER                                                             
%FORMAT(10I8)                                                                   
       6       7       6       6       7       1       1       1       1
%FLAG MASS                                                                      
%FORMAT(5E16.8)                                                                 
  1.20100000E+01  1.40100000E+01  1.20100000E+01  1.20100000E+01  1.40100000E+01
  1.00800000E+00  1.00800000E+00  1.00800000E+00  1.00800000E+00
%FLAG ATOM_TYPE_INDEX                                                           
%FORMAT(10I8)                                                                   
       1       2       1       1       3       4       5       5       6
%FLAG NUMBER_EXCLUDED_ATOMS                                                     
%FORMAT(10I8)                                                                   
       8       7       6       5       4       1       1       1       1
%FLAG NONBONDED_PARM_INDEX                                                      
%FORMAT(10I8)                                                                   
       1       2       4       7      11      16       2       3       5       8
      12      17       4       5       6       9      13      18       7       8
       9      10      14      19      11      12      13      14      15      20
      16      17      18      19      20      21
%FLAG RESIDUE_LABEL                                                             
%FORMAT(20a4)                                                                   
LIG 
%FLAG RESIDUE_POINTER                                                           
%FORMAT(10I8)                                                                   
       1
%FLAG BOND_FORCE_CONSTANT                                                       
%FORMAT(5E16.8)                                                                 
  4.19720000E+02  3.35500000E+02  3.66970000E+02  3.45930000E+02  3.86240000E+02
  3.67290000E+02  3.68720000E+02  4.81770000E+02
%FLAG BOND_EQUIL_VALUE                                                          
%FORMAT(5E16.8)                                                                 
  1.31580000E+00  1.38030000E+00  1.08200000E+00  1.37130000E+00  1.37300000E+00
  1.08180000E+00  1.08090000E+00  1.00950000E+00
%FLAG ANGLE_FORCE_CONSTANT                                                      
%FORMAT(5E16.8)                                                                 
  8.73500000E+01  8.31100000E+01  5.54300000E+01  7.69700000E+01  4.88600000E+01
  7.14500000E+01  4.82000000E+01  7.28100000E+01  4.39500000E+01  4.42000000E+01
  4.79900000E+01  4.78300000E+01
%FLAG ANGLE_EQUIL_VALUE                                                         
%FORMAT(5E16.8)                                                                 
  1.83905422E+00  1.92824058E+00  2.19335621E+00  1.95494413E+00  2.19248355E+00
  1.94743921E+00  2.11533996E+00  1.86313978E+00  2.25339556E+00  2.22773921E+00
  2.11202383E+00  2.12546287E+00
%FLAG DIHEDRAL_FORCE_CONSTANT                                                   
%FORMAT(5E16.8)                                                                 
  4.75000000E+00  1.70000000E+00  4.00000000E+00  1.10000000E+00
%FLAG DIHEDRAL_PERIODICITY                                                      
%FORMAT(5E16.8)                                                                 
  2.00000000E+00  2.00000000E+00  2.00000000E+00  2.00000000E+00
%FLAG DIHEDRAL_PHASE                                                            
%FORMAT(5E16.8)                                                                 
  3.14159400E+00  3.14159400E+00  3.14159400E+00  3.14159400E+00
%FLAG SCEE_SCALE_FACTOR                                                         
%FORMAT(5E16.8)                                                                 
  1.20000000E+00  1.20000000E+00  1.20000000E+00  0.00000000E+00
%FLAG SCNB_SCALE_FACTOR                                                         
%FORMAT(5E16.8)                                                                 
  2.00000000E+00  2.00000000E+00  2.00000000E+00  0.00000000E+00
%FLAG SOLTY                                                                     
%FORMAT(5E16.8)                                                                 
  0.00000000E+00  0.00000000E+00  0.00000000E+00  0.00000000E+00  0.00000000E+00
  0.00000000E+00  0.00000000E+00
%FLAG LENNARD_JONES_ACOEF                                                       
%FORMAT(5E16.8)                                                                 
  6.96551276E+05  7.69642101E+05  8.49322032E+05  8.20152428E+05  9.08092643E+05
  9.62429652E+05  5.22195041E+04  5.87815925E+04  5.96470418E+04  2.97255425E+03
  6.27751680E+04  7.05112106E+04  7.19580450E+04  3.69092714E+03  4.56536476E+03
  1.71458823E+03  2.01475241E+03  1.82491629E+03  5.02830284E+01  6.76796831E+01
  1.34728399E-01
%FLAG LENNARD_JONES_BCOEF                                                       
%FORMAT(5E16.8)                                                                 
  5.24668528E+02  5.44830041E+02  5.65406768E+02  6.82622272E+02  7.09588248E+02
  8.86629877E+02  9.12729468E+01  9.56653235E+01  1.16962018E+02  1.38359132E+01
  1.00073628E+02  1.04776275E+02  1.28466555E+02  1.54173833E+01  1.71467049E+01
  1.46824710E+01  1.57231024E+01  1.81620725E+01  1.59752321E+00  1.85338491E+00
  7.34107347E-02
%FLAG BONDS_INC_HYDROGEN                                                        
%FORMAT(10I8)                                                                   
       0      15       3       6      18       6       9      21       7      12
      24       8
%FLAG BONDS_WITHOUT_HYDROGEN                                                    
%FORMAT(10I8)                                                                   
       0       3       1       0      12       2       3       6       4       6
       9       5       9      12       2
%FLAG ANGLES_INC_HYDROGEN                                                       
%FORMAT(10I8)                                                                   
       0      12      24       3       3       0      15       5       3       6
      18       7       6       9      21       9       9       6      18      10
       9      12      24       3      12       9      21      11      12       0
      15      12
%FLAG ANGLES_WITHOUT_HYDROGEN                                                   
%FORMAT(10I8)                                                                   
       0       3       6       1       0      12       9       2       3       0
      12       4       3       6       9       6       6       9      12       8
%FLAG DIHEDRALS_INC_HYDROGEN                                                    
%FORMAT(10I8)                                                                   
       0       3       6      18       1       0      12       9      21       2
       3       0      12      24       2       3       6       9      21       3
      15       0       3       6       1       6       9      12      24       2
      15       0      12       9       2      12       9       6      18       3
      15       0      12      24       2      18       6       9      21       3
      21       9      12      24       2       3       0     -12     -15       4
       9      18      -6      -3       4       6      21      -9     -12       4
       0       9     -12     -24       4
%FLAG DIHEDRALS_WITHOUT_HYDROGEN                                                
%FORMAT(10I8)                                                                   
       0       3      -6       9       1       0      12      -9       6       2
       3       0     -12       9       2       3       6      -9      12       3
      12       0      -3       6       1
%FLAG EXCLUDED_ATOMS_LIST                                                       
%FORMAT(10I8)                                                                   
       2       3       4       5       6       7       8       9       3       4
       5       6       7       8       9       4       5       6       7       8
       9       5       6       7       8       9       6       7       8       9
       9       8       9       0
%FLAG HBOND_ACOEF                                                               
%FORMAT(5E16.8)                                                                 

%FLAG HBOND_BCOEF                                                               
%FORMAT(5E16.8)                                                                 

%FLAG HBCUT                                                                     
%FORMAT(5E16.8)                                                                 

%FLAG AMBER_ATOM_TYPE                                                           
%FORMAT(20a4)                                                                   
cc  nd  cd  cc  na  h5  h4  h4  hn  
%FLAG TREE_CHAIN_CLASSIFICATION                                                 
%FORMAT(20a4)                                                                   
BLA BLA BLA BLA BLA BLA BLA BLA BLA 
%FLAG JOIN_ARRAY                                                                
%FORMAT(10I8)                                                                   
       0       0       0       0       0       0       0       0       0
%FLAG IROTAT                                                                    
%FORMAT(10I8)                                                                   
       0       0       0       0       0       0       0       0       0
%FLAG RADIUS_SET                                                                
%FORMAT(1a80)                                                                   
ArgH and AspGluO modified Bondi2 radii (mbondi3)                                
%FLAG RADII                                                                     
%FORMAT(5E16.8)                                                                 
  1.70000000E+00  1.55000000E+00  1.70000000E+00  1.70000000E+00  1.55000000E+00
  1.20000000E+00  1.20000000E+00  1.20000000E+00  1.30000000E+00
%FLAG SCREEN                                                                    
%FORMAT(5E16.8)                                                                 
  7.20000000E-01  7.90000000E-01  7.20000000E-01  7.20000000E-01  7.90000000E-01
  8.50000000E-01  8.50000000E-01  8.50000000E-01  8.50000000E-01
%FLAG IPOL                                                                      
%FORMAT(1I8)                                                                    
       0
