LIG
     9
  -0.8980000   0.8840000   0.0340000   0.3720000   1.2970000   0.3230000
   1.2190000   0.2540000   0.2480000   0.4740000  -0.8480000  -0.0950000
  -0.8110000  -0.4340000  -0.2190000  -1.7990000   1.4850000   0.0110000
   2.2860000   0.2750000   0.4240000   0.7940000  -1.8830000  -0.2530000
  -1.6370000  -1.0300000  -0.4730000
