LIG
    13
  -2.2230000   0.0610000   0.5310000  -1.3550000   1.0700000   0.1140000
  -0.1100000   0.3500000  -0.7700000  -0.5300000   0.3580000  -2.2330000
   0.0660000  -1.2390000  -0.2120000   1.3420000   1.1570000  -0.6390000
   2.2890000   0.5220000   0.1320000  -3.2780000   0.3310000   0.4410000
  -2.0360000  -0.8730000  -0.0500000  -1.9310000  -0.1830000   1.5840000
   3.2420000   0.3100000  -0.4110000   2.5590000   1.2380000   0.9480000
   1.9640000  -0.4410000   0.5650000
