LIG
    12
  -0.1640000   1.3830000   0.0110000  -1.2740000   0.5310000   0.0040000
  -1.1080000  -0.8400000  -0.0070000   0.1740000  -1.3510000  -0.0110000
   1.2850000  -0.5320000  -0.0040000   1.1040000   0.8250000   0.0070000
  -0.3190000   2.4330000   0.0190000  -2.2490000   0.9910000   0.0080000
  -1.9680000  -1.4960000  -0.0120000   0.2500000  -2.4370000  -0.0190000
   2.2800000  -0.9540000  -0.0070000   1.9900000   1.4470000   0.0120000
