LIG
    12
   3.0210000  -0.5460000  -0.1650000   1.2890000  -0.2070000  -0.0700000
   0.8310000   1.0960000  -0.0100000  -0.5500000   1.3130000   0.0640000
  -1.4350000   0.2380000   0.0770000  -0.9160000  -1.0390000   0.0160000
   0.4400000  -1.3010000  -0.0580000   1.5400000   1.9120000  -0.0220000
  -0.9240000   2.3250000   0.1110000  -2.5090000   0.3710000   0.1340000
  -1.6230000  -1.8750000   0.0280000   0.8350000  -2.2880000  -0.1050000
